<?xml version="1.0"?>
<VTKFile type="UnstructuredGrid"  version="0.1"  >
<UnstructuredGrid>
<Piece  NumberOfPoints="58" NumberOfCells="148">
<Points>
<DataArray  type="Float64"  NumberOfComponents="3"  format="ascii">0.4023249999999999 0 0  0 0 -0.8046499999999999  0.266805 0 0  0 0 -0.6691299999999999  0.2844867357408777 0.2844867357408777 0  2.775557561562891e-17 0.4023249999999999 0  -0.2844867357408777 0.2844867357408777 0  -0.4023249999999999 2.775557561562891e-17 0  -0.2844867357408777 -0.2844867357408777 0  -2.775557561562891e-17 -0.4023249999999999 0  0.2844867357408777 -0.2844867357408777 0  0.1886596247544768 0.1886596247544768 0  2.775557561562891e-17 0.266805 0  -0.1886596247544767 0.1886596247544768 0  -0.266805 8.326672684688674e-17 0  -0.1886596247544768 -0.1886596247544767 0  -1.387778780781446e-16 -0.266805 0  0.1886596247544766 -0.1886596247544769 0  0.3686082568662342 0 -0.3224491190562394  0.2536108874396318 0 -0.6246500569025265  0.2466044134321161 0 -0.2554056152626437  0.1766587270840894 0 -0.5014405794480644  0.2606453980314651 0.2606453980314651 -0.3224491190562516  0.1793299782912967 0.1793299782912967 -0.6246500569025382  2.542952674080888e-17 0.3686082568662342 -0.3224491190562394  1.749609435972772e-17 0.2536108874396318 -0.6246500569025265  -0.2606453980314651 0.2606453980314651 -0.3224491190562516  -0.1793299782912967 0.1793299782912967 -0.6246500569025382  -0.3686082568662342 2.542952674080888e-17 -0.3224491190562394  -0.2536108874396318 1.749609435972772e-17 -0.6246500569025265  -0.2606453980314651 -0.2606453980314651 -0.3224491190562516  -0.1793299782912967 -0.1793299782912967 -0.6246500569025382  -2.542952674080888e-17 -0.3686082568662342 -0.3224491190562394  -1.749609435972772e-17 -0.2536108874396318 -0.6246500569025265  0.2606453980314651 -0.2606453980314651 -0.3224491190562516  0.1793299782912967 -0.1793299782912967 -0.6246500569025382  0.1743756530083801 0.17437565300838 -0.2554056152626451  0.1249165838769436 0.1249165838769436 -0.5014405794480633  2.565411984094344e-17 0.2466044134321161 -0.2554056152626437  1.837770902997769e-17 0.1766587270840894 -0.5014405794480644  -0.1743756530083802 0.1743756530083803 -0.2554056152626436  -0.1249165838769431 0.1249165838769432 -0.5014405794480646  -0.2466044134321161 7.696235952283031e-17 -0.2554056152626437  -0.1766587270840894 5.513312708993305e-17 -0.5014405794480644  -0.1743756530083802 -0.17437565300838 -0.2554056152626445  -0.1249165838769429 -0.1249165838769428 -0.5014405794480657  -1.282705992047172e-16 -0.2466044134321161 -0.2554056152626437  -9.188854514988842e-17 -0.1766587270840894 -0.5014405794480644  0.1743756530083804 -0.1743756530083806 -0.2554056152626407  0.1249165838769432 -0.1249165838769434 -0.5014405794480641  -0.2855690901238386 -0.1182865901238386 0  -0.2855690901238385 0.1182865901238386 0  -0.1182865901238386 0.2855690901238386 -0  0.1182865901238386 0.2855690901238386 0  0.2855690901238386 0.1182865901238386 0  0.2855690901238386 -0.1182865901238386 0  0.1182865901238385 -0.2855690901238386 0  -0.1182865901238387 -0.2855690901238386 0  </DataArray>
</Points>
<Cells>
<DataArray  type="UInt32"  Name="connectivity"  format="ascii">5 6 24 52  8 9 32 57  7 8 28 50  9 10 32 56  0 4 18 54  6 7 28 51  0 10 18 55  4 5 24 53  10 18 34 55  4 18 22 54  4 22 24 53  8 28 30 50  30 42 44 50  22 23 37 39  21 22 23 37  30 31 43 45  30 31 45 47  20 34 48 55  22 36 38 53  20 22 36 54  28 40 42 51  21 34 35 49  33 34 47 49  16 17 46 56  15 16 46 57  25 26 39 41  22 24 38 53  18 20 34 55  18 20 22 54  28 30 42 50  29 30 31 43  22 23 25 39  19 21 22 23  30 31 33 47  28 29 41 43  15 42 44 50  9 32 46 57  0 18 20 55  5 24 38 52  7 28 42 51  5 24 38 53  0 18 20 54  9 32 46 56  7 28 42 50  33 34 35 49  9 16 46 57  9 16 46 56  12 36 38 53  2 11 20 54  11 12 36 53  14 15 42 50  14 40 42 51  13 14 40 51  12 13 38 52  2 17 48 55  11 20 36 54  2 20 48 55  25 26 27 41  8 30 44 50  10 34 48 55  4 22 36 54  4 22 36 53  27 28 29 41  18 21 34 35  26 27 28 41  18 19 21 35  28 29 30 43  24 25 26 39  22 24 25 39  30 32 33 47  18 19 21 22  32 33 34 47  0 2 20 54  0 2 20 55  7 14 42 50  7 14 42 51  5 12 38 52  5 12 38 53  30 43 44 45  30 44 45 47  22 36 37 39  21 22 36 37  34 47 48 49  21 34 48 49  1 3 31 33  1 3 23 25  1 3 19 23  1 3 29 31  8 15 44 50  30 42 43 44  26 39 40 41  22 36 38 39  20 21 22 36  20 21 34 48  4 11 36 54  4 11 36 53  6 13 40 51  10 17 48 55  3 31 43 45  3 23 37 39  3 31 45 47  3 21 23 37  28 41 42 43  32 44 46 47  1 3 27 29  1 3 33 35  1 3 19 35  1 3 25 27  32 46 47 48  28 40 41 42  24 38 39 40  30 32 44 47  3 33 47 49  3 21 35 49  26 28 40 41  28 30 42 43  24 26 39 40  22 24 38 39  32 34 47 48  18 20 21 22  18 20 21 34  3 29 41 43  3 25 39 41  3 29 31 43  3 23 25 39  3 31 33 47  3 19 21 23  3 33 35 49  3 27 29 41  3 25 27 41  3 19 21 35  6 24 26 40  10 32 34 48  8 30 32 44  6 26 28 40  6 28 40 51  8 15 44 46  8 15 46 57  8 32 44 46  8 32 46 57  10 17 46 56  10 17 46 48  10 32 46 56  10 32 46 48  6 13 38 52  6 13 38 40  6 24 38 52  6 24 38 40  </DataArray>
<DataArray  type="UInt32"  Name="offsets"  format="ascii">4 8 12 16 20 24 28 32 36 40 44 48 52 56 60 64 68 72 76 80 84 88 92 96 100 104 108 112 116 120 124 128 132 136 140 144 148 152 156 160 164 168 172 176 180 184 188 192 196 200 204 208 212 216 220 224 228 232 236 240 244 248 252 256 260 264 268 272 276 280 284 288 292 296 300 304 308 312 316 320 324 328 332 336 340 344 348 352 356 360 364 368 372 376 380 384 388 392 396 400 404 408 412 416 420 424 428 432 436 440 444 448 452 456 460 464 468 472 476 480 484 488 492 496 500 504 508 512 516 520 524 528 532 536 540 544 548 552 556 560 564 568 572 576 580 584 588 592 </DataArray>
<DataArray  type="UInt8"  Name="types"  format="ascii">10 10 10 10 10 10 10 10 10 10 10 10 10 10 10 10 10 10 10 10 10 10 10 10 10 10 10 10 10 10 10 10 10 10 10 10 10 10 10 10 10 10 10 10 10 10 10 10 10 10 10 10 10 10 10 10 10 10 10 10 10 10 10 10 10 10 10 10 10 10 10 10 10 10 10 10 10 10 10 10 10 10 10 10 10 10 10 10 10 10 10 10 10 10 10 10 10 10 10 10 10 10 10 10 10 10 10 10 10 10 10 10 10 10 10 10 10 10 10 10 10 10 10 10 10 10 10 10 10 10 10 10 10 10 10 10 10 10 10 10 10 10 10 10 10 10 10 10 </DataArray>
</Cells>
<PointData  Vectors="f_24"> 
<DataArray  type="Float64"  Name="f_24"  NumberOfComponents="3" format="ascii">-1.4594671522738004e-01 5.8453318561614198e-01 -1.0779322684362875e+00  8.7993785594450952e-02 -3.1982045033108808e-02 -4.9367677758842493e-01  -5.9092903052601349e-02 4.5884188071402759e-01 1.0048105998771431e+00  2.4428599120583858e-02 -4.2858264679111441e-02 7.5997166797941529e-01  -3.8944726175773436e-01 3.1902581620742465e-01 -1.0051355174159857e+00  -5.5740764231043638e-01 -2.1124443298946121e-02 -1.0639689911233159e+00  -4.2690408447231953e-01 -4.9648795159840786e-01 -1.1367896187326716e+00  9.7682677541009788e-02 -5.3447810485002323e-01 -1.0761644894795279e+00  5.0618751353947278e-01 -3.5389309347022818e-01 -1.0847762114190791e+00  5.1612205583024950e-01 1.3554008791268299e-01 -1.0477365397379490e+00  4.0010031351744912e-01 4.9674122581851238e-01 -1.0855784635152084e+00  -4.0820676876315026e-01 3.5568753518378249e-01 9.9615477896316051e-01  -4.9309300799581235e-01 9.9250598097949699e-02 1.0035729516745890e+00  -3.5460158836520811e-01 -3.9152048199393846e-01 1.0618169930684176e+00  8.3631636553797725e-02 -4.7919512462060310e-01 9.9053252012068493e-01  2.6992712382252043e-01 -4.0589582935491386e-01 1.0321277484369047e+00  5.5202251133705682e-01 1.5111527364439098e-02 1.0291148389583131e+00  3.5605513965227015e-01 4.3234838607491344e-01 1.0534401156378805e+00  -2.9189101139773904e-01 4.3223392088153145e-01 -1.1630930550175838e+00  -7.6316072670685309e-01 7.6785761237009820e-01 -9.6009719703868890e-01  1.0609330606096606e-01 7.5817954943432875e-01 1.1951825607432010e+00  3.5973987041917921e-01 9.1576748973946809e-01 9.6898714146783826e-01  -6.5605108184655514e-01 3.2176403069544462e-01 -1.1663894393480829e+00  -1.0748413893068316e+00 2.1286747351391275e-01 -9.9250376257964368e-01  -5.8038019373902894e-01 -2.1891088566935293e-01 -1.1715641080827910e+00  -7.9667620191101496e-01 -5.0556179126941092e-01 -9.8490951099710178e-01  -2.5854520418523474e-01 -6.3521820201172274e-01 -1.1519333587159621e+00  -2.7994997383342279e-02 -1.0695131353987160e+00 -9.5910014907497487e-01  3.1560430222895580e-01 -6.4200927671234786e-01 -1.1578648654367498e+00  6.2149622160545215e-01 -7.9033161311412314e-01 -9.7545885220596129e-01  6.2151346342339486e-01 -2.9824142141896481e-01 -1.1584888500179849e+00  1.0332237205331429e+00 -2.5839526289389608e-01 -9.8905872141397611e-01  6.7709115188128688e-01 1.8396704147727305e-01 -1.1882540475839534e+00  7.3835634581072707e-01 5.8827046146010076e-01 -9.8312561764973549e-01  2.5777192246485819e-01 6.9819317133391268e-01 -1.1540730557139529e+00  2.0864121473120339e-01 9.8283672789081333e-01 -9.7589261307372621e-01  -3.2242290870134471e-01 4.8483686642596224e-01 1.1738129072300638e+00  -1.5114046576235207e-01 8.5050388757982964e-01 1.0089356771181257e+00  -7.4178077054672742e-01 2.1254281381378887e-01 1.1867154609412891e+00  -7.7127007270353054e-01 4.6593517400514534e-01 9.9273272920799627e-01  -6.8046726981452443e-01 -4.8547920519250304e-01 1.1392949292981576e+00  -1.0351356856105691e+00 -3.0318062729687234e-01 9.5357424936778035e-01  -3.7082516333738637e-02 -7.0212650975184188e-01 1.1872590806804613e+00  -2.6709833176668485e-01 -9.3391160873462942e-01 9.7212584727983964e-01  3.7985681618866729e-01 -6.5922091562931151e-01 1.1558549686776813e+00  -6.8832047084381620e-02 -9.3594851453387884e-01 9.8570641993033625e-01  7.7332089109800473e-01 -1.4898932901403095e-01 1.1634500080882035e+00  7.9071309305586246e-01 -4.3649236683841813e-01 9.9618825685892276e-01  6.1530636191517696e-01 3.6354773681161501e-01 1.1505813604678723e+00  1.0265642851424488e+00 -6.9620475996523795e-02 9.5860119206331795e-01  3.4127569326495499e-01 -1.0114844232530593e+00 -5.9849470957314854e-02  -5.2051383268722962e-01 -1.0175911332948018e+00 -2.0319331710307739e-02  -9.8279064722100395e-01 -6.2148913546809426e-01 -7.5663871082178202e-02  -1.0094233127229217e+00 4.3808815548974944e-01 -7.2113838017269657e-02  -3.7779719401395601e-01 1.0759139793241501e+00 -7.5040960399914203e-02  4.8688088363140430e-01 1.0005821744837231e+00 -6.0887561406341092e-02  9.5124454851019835e-01 5.6399327451423287e-01 -8.2724500263340120e-02  9.6181355194427187e-01 -6.0297630879407205e-01 -8.0164389666288624e-02  </DataArray> 
</PointData> 
</Piece>
</UnstructuredGrid>
</VTKFile>