<?xml version="1.0"?>
<VTKFile type="UnstructuredGrid"  version="0.1"  >
<UnstructuredGrid>
<Piece  NumberOfPoints="58" NumberOfCells="148">
<Points>
<DataArray  type="Float64"  NumberOfComponents="3"  format="ascii">0.4023249999999999 0 0  0 0 -0.8046499999999999  0.266805 0 0  0 0 -0.6691299999999999  0.2844867357408777 0.2844867357408777 0  2.775557561562891e-17 0.4023249999999999 0  -0.2844867357408777 0.2844867357408777 0  -0.4023249999999999 2.775557561562891e-17 0  -0.2844867357408777 -0.2844867357408777 0  -2.775557561562891e-17 -0.4023249999999999 0  0.2844867357408777 -0.2844867357408777 0  0.1886596247544768 0.1886596247544768 0  2.775557561562891e-17 0.266805 0  -0.1886596247544767 0.1886596247544768 0  -0.266805 8.326672684688674e-17 0  -0.1886596247544768 -0.1886596247544767 0  -1.387778780781446e-16 -0.266805 0  0.1886596247544766 -0.1886596247544769 0  0.3686082568662342 0 -0.3224491190562394  0.2536108874396318 0 -0.6246500569025265  0.2466044134321161 0 -0.2554056152626437  0.1766587270840894 0 -0.5014405794480644  0.2606453980314651 0.2606453980314651 -0.3224491190562516  0.1793299782912967 0.1793299782912967 -0.6246500569025382  2.542952674080888e-17 0.3686082568662342 -0.3224491190562394  1.749609435972772e-17 0.2536108874396318 -0.6246500569025265  -0.2606453980314651 0.2606453980314651 -0.3224491190562516  -0.1793299782912967 0.1793299782912967 -0.6246500569025382  -0.3686082568662342 2.542952674080888e-17 -0.3224491190562394  -0.2536108874396318 1.749609435972772e-17 -0.6246500569025265  -0.2606453980314651 -0.2606453980314651 -0.3224491190562516  -0.1793299782912967 -0.1793299782912967 -0.6246500569025382  -2.542952674080888e-17 -0.3686082568662342 -0.3224491190562394  -1.749609435972772e-17 -0.2536108874396318 -0.6246500569025265  0.2606453980314651 -0.2606453980314651 -0.3224491190562516  0.1793299782912967 -0.1793299782912967 -0.6246500569025382  0.1743756530083801 0.17437565300838 -0.2554056152626451  0.1249165838769436 0.1249165838769436 -0.5014405794480633  2.565411984094344e-17 0.2466044134321161 -0.2554056152626437  1.837770902997769e-17 0.1766587270840894 -0.5014405794480644  -0.1743756530083802 0.1743756530083803 -0.2554056152626436  -0.1249165838769431 0.1249165838769432 -0.5014405794480646  -0.2466044134321161 7.696235952283031e-17 -0.2554056152626437  -0.1766587270840894 5.513312708993305e-17 -0.5014405794480644  -0.1743756530083802 -0.17437565300838 -0.2554056152626445  -0.1249165838769429 -0.1249165838769428 -0.5014405794480657  -1.282705992047172e-16 -0.2466044134321161 -0.2554056152626437  -9.188854514988842e-17 -0.1766587270840894 -0.5014405794480644  0.1743756530083804 -0.1743756530083806 -0.2554056152626407  0.1249165838769432 -0.1249165838769434 -0.5014405794480641  -0.2855690901238386 -0.1182865901238386 0  -0.2855690901238385 0.1182865901238386 0  -0.1182865901238386 0.2855690901238386 -0  0.1182865901238386 0.2855690901238386 0  0.2855690901238386 0.1182865901238386 0  0.2855690901238386 -0.1182865901238386 0  0.1182865901238385 -0.2855690901238386 0  -0.1182865901238387 -0.2855690901238386 0  </DataArray>
</Points>
<Cells>
<DataArray  type="UInt32"  Name="connectivity"  format="ascii">5 6 24 52  8 9 32 57  7 8 28 50  9 10 32 56  0 4 18 54  6 7 28 51  0 10 18 55  4 5 24 53  10 18 34 55  4 18 22 54  4 22 24 53  8 28 30 50  30 42 44 50  22 23 37 39  21 22 23 37  30 31 43 45  30 31 45 47  20 34 48 55  22 36 38 53  20 22 36 54  28 40 42 51  21 34 35 49  33 34 47 49  16 17 46 56  15 16 46 57  25 26 39 41  22 24 38 53  18 20 34 55  18 20 22 54  28 30 42 50  29 30 31 43  22 23 25 39  19 21 22 23  30 31 33 47  28 29 41 43  15 42 44 50  9 32 46 57  0 18 20 55  5 24 38 52  7 28 42 51  5 24 38 53  0 18 20 54  9 32 46 56  7 28 42 50  33 34 35 49  9 16 46 57  9 16 46 56  12 36 38 53  2 11 20 54  11 12 36 53  14 15 42 50  14 40 42 51  13 14 40 51  12 13 38 52  2 17 48 55  11 20 36 54  2 20 48 55  25 26 27 41  8 30 44 50  10 34 48 55  4 22 36 54  4 22 36 53  27 28 29 41  18 21 34 35  26 27 28 41  18 19 21 35  28 29 30 43  24 25 26 39  22 24 25 39  30 32 33 47  18 19 21 22  32 33 34 47  0 2 20 54  0 2 20 55  7 14 42 50  7 14 42 51  5 12 38 52  5 12 38 53  30 43 44 45  30 44 45 47  22 36 37 39  21 22 36 37  34 47 48 49  21 34 48 49  1 3 31 33  1 3 23 25  1 3 19 23  1 3 29 31  8 15 44 50  30 42 43 44  26 39 40 41  22 36 38 39  20 21 22 36  20 21 34 48  4 11 36 54  4 11 36 53  6 13 40 51  10 17 48 55  3 31 43 45  3 23 37 39  3 31 45 47  3 21 23 37  28 41 42 43  32 44 46 47  1 3 27 29  1 3 33 35  1 3 19 35  1 3 25 27  32 46 47 48  28 40 41 42  24 38 39 40  30 32 44 47  3 33 47 49  3 21 35 49  26 28 40 41  28 30 42 43  24 26 39 40  22 24 38 39  32 34 47 48  18 20 21 22  18 20 21 34  3 29 41 43  3 25 39 41  3 29 31 43  3 23 25 39  3 31 33 47  3 19 21 23  3 33 35 49  3 27 29 41  3 25 27 41  3 19 21 35  6 24 26 40  10 32 34 48  8 30 32 44  6 26 28 40  6 28 40 51  8 15 44 46  8 15 46 57  8 32 44 46  8 32 46 57  10 17 46 56  10 17 46 48  10 32 46 56  10 32 46 48  6 13 38 52  6 13 38 40  6 24 38 52  6 24 38 40  </DataArray>
<DataArray  type="UInt32"  Name="offsets"  format="ascii">4 8 12 16 20 24 28 32 36 40 44 48 52 56 60 64 68 72 76 80 84 88 92 96 100 104 108 112 116 120 124 128 132 136 140 144 148 152 156 160 164 168 172 176 180 184 188 192 196 200 204 208 212 216 220 224 228 232 236 240 244 248 252 256 260 264 268 272 276 280 284 288 292 296 300 304 308 312 316 320 324 328 332 336 340 344 348 352 356 360 364 368 372 376 380 384 388 392 396 400 404 408 412 416 420 424 428 432 436 440 444 448 452 456 460 464 468 472 476 480 484 488 492 496 500 504 508 512 516 520 524 528 532 536 540 544 548 552 556 560 564 568 572 576 580 584 588 592 </DataArray>
<DataArray  type="UInt8"  Name="types"  format="ascii">10 10 10 10 10 10 10 10 10 10 10 10 10 10 10 10 10 10 10 10 10 10 10 10 10 10 10 10 10 10 10 10 10 10 10 10 10 10 10 10 10 10 10 10 10 10 10 10 10 10 10 10 10 10 10 10 10 10 10 10 10 10 10 10 10 10 10 10 10 10 10 10 10 10 10 10 10 10 10 10 10 10 10 10 10 10 10 10 10 10 10 10 10 10 10 10 10 10 10 10 10 10 10 10 10 10 10 10 10 10 10 10 10 10 10 10 10 10 10 10 10 10 10 10 10 10 10 10 10 10 10 10 10 10 10 10 10 10 10 10 10 10 10 10 10 10 10 10 </DataArray>
</Cells>
<PointData  Vectors="f_58"> 
<DataArray  type="Float64"  Name="f_58"  NumberOfComponents="3" format="ascii">-7.8251391464453403e-03 -9.9902417442477087e-01 -6.5291342907190864e-01  1.5308319177880806e-02 9.0895497026851665e-02 -2.5105298321338654e-01  -8.6859645295103288e-02 1.0048188905948401e+00 -4.9005723378657234e-01  3.2194857489121674e-02 1.7239325139818906e-02 -4.3269536175322498e-01  6.9954882143285513e-01 -8.0229388570288129e-01 -5.2845832074129928e-01  9.9543631350811934e-01 -4.7231867591535727e-02 -6.2052854191105722e-01  8.5143977485817279e-01 7.2776103237363787e-01 -6.4846255490371763e-01  -6.4403348909425992e-02 1.0461417057877380e+00 -6.3105875577599524e-01  -8.1373809763211846e-01 7.1210398672011277e-01 -6.2573377019743692e-01  -1.0035822379522843e+00 5.9340709703896840e-03 -5.8536034437903761e-01  -8.9854866930041200e-01 -6.8807858235390418e-01 -6.3722607106926477e-01  -7.0453066931164110e-01 6.8695618083929011e-01 -5.8421633560453479e-01  -1.0323018268595505e+00 7.9673297812659812e-03 -5.0793315660929250e-01  -7.1574237690710518e-01 -8.7940106095336290e-01 -5.3957627075305081e-01  3.0234123486496747e-02 -9.4753216922978434e-01 -5.1910727973533566e-01  7.2373156911145387e-01 -8.4669259378574524e-01 -5.1990363114029092e-01  9.8135039868583729e-01 1.1718564103856477e-01 -5.7009023410833637e-01  6.7565210079552973e-01 8.7050632023275076e-01 -5.7967901242177799e-01  -3.4152015719025680e-02 -1.2566090948336366e+00 -5.0858962266573160e-01  -4.9814344296047935e-01 -1.2333234638469623e+00 -4.5710741065653221e-01  -1.4289390144419559e-01 1.1010358000049036e+00 -7.5848409594748345e-01  -3.8709191541445648e-01 9.8614018951007398e-01 -7.8419791237369663e-01  7.0589238983245595e-01 -8.5074071865451706e-01 -7.0608940109173579e-01  3.1269558179567208e-01 -1.1617948617597655e+00 -5.1979227808397144e-01  1.1855516761283946e+00 -5.4292415620537847e-02 -5.6152102401183290e-01  1.0643517609481628e+00 -4.8840235389693337e-01 -4.7686469049901831e-01  9.6943987394007725e-01 7.3927600474336974e-01 -6.5075080914565386e-01  1.1971109193113170e+00 5.2867704220914435e-01 -4.7574093710960302e-01  2.0326050748111868e-01 1.2137097035133377e+00 -5.9591004429788219e-01  5.1245596646701563e-01 1.0911822270946239e+00 -4.8812480853543022e-01  -6.7926154672737205e-01 9.8038614923649625e-01 -6.8656960915597764e-01  -2.8884679086379811e-01 1.1386924069616726e+00 -5.3071864774741462e-01  -1.1872965772475375e+00 1.3722400702261037e-01 -6.2215355357946789e-01  -1.1876707674966738e+00 4.4111559701807002e-01 -4.7356651522414189e-01  -7.7495975591913702e-01 -8.1302161894616842e-01 -6.8988809794015848e-01  -1.0400738556606792e+00 -4.3242744548431017e-01 -5.1238918284601287e-01  -9.1026672168174827e-01 7.7324318707389805e-01 -5.8052729038312545e-01  -1.1230884171729465e+00 6.2681554631354752e-01 -5.8950644630507687e-01  -1.1244839517229859e+00 -1.0997851537213051e-02 -7.6002573536288920e-01  -1.0572474511972634e+00 -1.7820479791188451e-01 -7.5342822703076684e-01  -6.6819358733659240e-01 -8.9889406914153636e-01 -7.7231989704286652e-01  -4.1941385413284854e-01 -1.1732253947677707e+00 -7.5269076891686837e-01  2.3783505683643300e-01 -1.1330827368108647e+00 -6.8422204627324013e-01  6.0219853227239140e-01 -9.7623763947842024e-01 -7.3513921127480275e-01  9.0556513106445957e-01 -6.8901372868225341e-01 -7.1611611890299820e-01  1.0552452599378011e+00 -8.2153844214481642e-01 -5.7161183638924484e-01  1.1614509299637708e+00 8.2502700208887364e-02 -7.5437311114147942e-01  1.0403694378622270e+00 2.1507888099930664e-01 -7.4982625779777801e-01  7.8566488378256150e-01 8.4509912189541780e-01 -6.7687660234547764e-01  7.6239163503135310e-01 1.0927710561574224e+00 -6.6240374758350051e-01  3.4273077824463663e-02 9.4703204581006339e-02 -9.9228234093701762e-01  1.2740742664687030e-01 -6.9613868026467685e-02 -1.0125661135858308e+00  1.4901224694174023e-01 -9.9550169302965702e-02 -1.0326164824431896e+00  8.2954407692025112e-02 -7.6710381452061466e-02 -1.0205507418983883e+00  -7.5168462376240058e-02 -9.9795218846865666e-02 -1.0231517652313542e+00  -4.4794326487884437e-02 -2.9462980316622714e-02 -9.9410405315396877e-01  -1.3556125926351381e-01 3.2469726656787691e-02 -1.0161522798055098e+00  -3.6187270406741759e-02 9.4760271301746080e-02 -1.0271814140293929e+00  </DataArray> 
</PointData> 
</Piece>
</UnstructuredGrid>
</VTKFile>