<?xml version="1.0"?>
<VTKFile type="UnstructuredGrid"  version="0.1"  >
<UnstructuredGrid>
<Piece  NumberOfPoints="58" NumberOfCells="148">
<Points>
<DataArray  type="Float64"  NumberOfComponents="3"  format="ascii">0.4023249999999999 0 0  0 0 -0.8046499999999999  0.266805 0 0  0 0 -0.6691299999999999  0.2844867357408777 0.2844867357408777 0  2.775557561562891e-17 0.4023249999999999 0  -0.2844867357408777 0.2844867357408777 0  -0.4023249999999999 2.775557561562891e-17 0  -0.2844867357408777 -0.2844867357408777 0  -2.775557561562891e-17 -0.4023249999999999 0  0.2844867357408777 -0.2844867357408777 0  0.1886596247544768 0.1886596247544768 0  2.775557561562891e-17 0.266805 0  -0.1886596247544767 0.1886596247544768 0  -0.266805 8.326672684688674e-17 0  -0.1886596247544768 -0.1886596247544767 0  -1.387778780781446e-16 -0.266805 0  0.1886596247544766 -0.1886596247544769 0  0.3686082568662342 0 -0.3224491190562394  0.2536108874396318 0 -0.6246500569025265  0.2466044134321161 0 -0.2554056152626437  0.1766587270840894 0 -0.5014405794480644  0.2606453980314651 0.2606453980314651 -0.3224491190562516  0.1793299782912967 0.1793299782912967 -0.6246500569025382  2.542952674080888e-17 0.3686082568662342 -0.3224491190562394  1.749609435972772e-17 0.2536108874396318 -0.6246500569025265  -0.2606453980314651 0.2606453980314651 -0.3224491190562516  -0.1793299782912967 0.1793299782912967 -0.6246500569025382  -0.3686082568662342 2.542952674080888e-17 -0.3224491190562394  -0.2536108874396318 1.749609435972772e-17 -0.6246500569025265  -0.2606453980314651 -0.2606453980314651 -0.3224491190562516  -0.1793299782912967 -0.1793299782912967 -0.6246500569025382  -2.542952674080888e-17 -0.3686082568662342 -0.3224491190562394  -1.749609435972772e-17 -0.2536108874396318 -0.6246500569025265  0.2606453980314651 -0.2606453980314651 -0.3224491190562516  0.1793299782912967 -0.1793299782912967 -0.6246500569025382  0.1743756530083801 0.17437565300838 -0.2554056152626451  0.1249165838769436 0.1249165838769436 -0.5014405794480633  2.565411984094344e-17 0.2466044134321161 -0.2554056152626437  1.837770902997769e-17 0.1766587270840894 -0.5014405794480644  -0.1743756530083802 0.1743756530083803 -0.2554056152626436  -0.1249165838769431 0.1249165838769432 -0.5014405794480646  -0.2466044134321161 7.696235952283031e-17 -0.2554056152626437  -0.1766587270840894 5.513312708993305e-17 -0.5014405794480644  -0.1743756530083802 -0.17437565300838 -0.2554056152626445  -0.1249165838769429 -0.1249165838769428 -0.5014405794480657  -1.282705992047172e-16 -0.2466044134321161 -0.2554056152626437  -9.188854514988842e-17 -0.1766587270840894 -0.5014405794480644  0.1743756530083804 -0.1743756530083806 -0.2554056152626407  0.1249165838769432 -0.1249165838769434 -0.5014405794480641  -0.2855690901238386 -0.1182865901238386 0  -0.2855690901238385 0.1182865901238386 0  -0.1182865901238386 0.2855690901238386 -0  0.1182865901238386 0.2855690901238386 0  0.2855690901238386 0.1182865901238386 0  0.2855690901238386 -0.1182865901238386 0  0.1182865901238385 -0.2855690901238386 0  -0.1182865901238387 -0.2855690901238386 0  </DataArray>
</Points>
<Cells>
<DataArray  type="UInt32"  Name="connectivity"  format="ascii">5 6 24 52  8 9 32 57  7 8 28 50  9 10 32 56  0 4 18 54  6 7 28 51  0 10 18 55  4 5 24 53  10 18 34 55  4 18 22 54  4 22 24 53  8 28 30 50  30 42 44 50  22 23 37 39  21 22 23 37  30 31 43 45  30 31 45 47  20 34 48 55  22 36 38 53  20 22 36 54  28 40 42 51  21 34 35 49  33 34 47 49  16 17 46 56  15 16 46 57  25 26 39 41  22 24 38 53  18 20 34 55  18 20 22 54  28 30 42 50  29 30 31 43  22 23 25 39  19 21 22 23  30 31 33 47  28 29 41 43  15 42 44 50  9 32 46 57  0 18 20 55  5 24 38 52  7 28 42 51  5 24 38 53  0 18 20 54  9 32 46 56  7 28 42 50  33 34 35 49  9 16 46 57  9 16 46 56  12 36 38 53  2 11 20 54  11 12 36 53  14 15 42 50  14 40 42 51  13 14 40 51  12 13 38 52  2 17 48 55  11 20 36 54  2 20 48 55  25 26 27 41  8 30 44 50  10 34 48 55  4 22 36 54  4 22 36 53  27 28 29 41  18 21 34 35  26 27 28 41  18 19 21 35  28 29 30 43  24 25 26 39  22 24 25 39  30 32 33 47  18 19 21 22  32 33 34 47  0 2 20 54  0 2 20 55  7 14 42 50  7 14 42 51  5 12 38 52  5 12 38 53  30 43 44 45  30 44 45 47  22 36 37 39  21 22 36 37  34 47 48 49  21 34 48 49  1 3 31 33  1 3 23 25  1 3 19 23  1 3 29 31  8 15 44 50  30 42 43 44  26 39 40 41  22 36 38 39  20 21 22 36  20 21 34 48  4 11 36 54  4 11 36 53  6 13 40 51  10 17 48 55  3 31 43 45  3 23 37 39  3 31 45 47  3 21 23 37  28 41 42 43  32 44 46 47  1 3 27 29  1 3 33 35  1 3 19 35  1 3 25 27  32 46 47 48  28 40 41 42  24 38 39 40  30 32 44 47  3 33 47 49  3 21 35 49  26 28 40 41  28 30 42 43  24 26 39 40  22 24 38 39  32 34 47 48  18 20 21 22  18 20 21 34  3 29 41 43  3 25 39 41  3 29 31 43  3 23 25 39  3 31 33 47  3 19 21 23  3 33 35 49  3 27 29 41  3 25 27 41  3 19 21 35  6 24 26 40  10 32 34 48  8 30 32 44  6 26 28 40  6 28 40 51  8 15 44 46  8 15 46 57  8 32 44 46  8 32 46 57  10 17 46 56  10 17 46 48  10 32 46 56  10 32 46 48  6 13 38 52  6 13 38 40  6 24 38 52  6 24 38 40  </DataArray>
<DataArray  type="UInt32"  Name="offsets"  format="ascii">4 8 12 16 20 24 28 32 36 40 44 48 52 56 60 64 68 72 76 80 84 88 92 96 100 104 108 112 116 120 124 128 132 136 140 144 148 152 156 160 164 168 172 176 180 184 188 192 196 200 204 208 212 216 220 224 228 232 236 240 244 248 252 256 260 264 268 272 276 280 284 288 292 296 300 304 308 312 316 320 324 328 332 336 340 344 348 352 356 360 364 368 372 376 380 384 388 392 396 400 404 408 412 416 420 424 428 432 436 440 444 448 452 456 460 464 468 472 476 480 484 488 492 496 500 504 508 512 516 520 524 528 532 536 540 544 548 552 556 560 564 568 572 576 580 584 588 592 </DataArray>
<DataArray  type="UInt8"  Name="types"  format="ascii">10 10 10 10 10 10 10 10 10 10 10 10 10 10 10 10 10 10 10 10 10 10 10 10 10 10 10 10 10 10 10 10 10 10 10 10 10 10 10 10 10 10 10 10 10 10 10 10 10 10 10 10 10 10 10 10 10 10 10 10 10 10 10 10 10 10 10 10 10 10 10 10 10 10 10 10 10 10 10 10 10 10 10 10 10 10 10 10 10 10 10 10 10 10 10 10 10 10 10 10 10 10 10 10 10 10 10 10 10 10 10 10 10 10 10 10 10 10 10 10 10 10 10 10 10 10 10 10 10 10 10 10 10 10 10 10 10 10 10 10 10 10 10 10 10 10 10 10 </DataArray>
</Cells>
<PointData  Vectors="f_41"> 
<DataArray  type="Float64"  Name="f_41"  NumberOfComponents="3" format="ascii">8.8990629096872831e-01 9.0669600822651061e-02 -9.2370070178663014e-02  -3.1187223263822023e-02 -4.0190343022089986e-02 -9.1693941899073028e-01  9.2408981637855170e-01 6.8889420143601596e-02 -7.2461933880554830e-02  -4.2067912783013958e-02 -1.7885372690884308e-02 -1.0267203957088040e+00  6.7012632128560989e-01 6.6006726092042123e-01 -7.0243342766987044e-02  5.3238479169220851e-02 8.8606228884033433e-01 -8.1678910143892267e-02  -7.0257808161918001e-01 7.1641299561530325e-01 -3.1016621737300371e-02  -8.8743369924772786e-01 -5.3895379808262249e-02 -8.9447721639156388e-02  -6.5240758179514857e-01 -7.1819511231280919e-01 -4.3562549621511570e-02  8.5080276215603642e-02 -8.8859640555133335e-01 -7.5835802454152362e-02  6.8700000569367214e-01 -7.0060857412814637e-01 -4.2615884267835885e-02  6.5056399334774395e-01 6.6687997333779170e-01 -7.8664650170783862e-02  1.2678000437719608e-01 9.4843537461854532e-01 -6.9464739390667454e-02  -6.8335635018907626e-01 6.2453755319237425e-01 -7.2905658822213004e-02  -9.4782961560204904e-01 -9.4080627170531048e-02 -6.3755111231907177e-02  -7.1222000987284917e-01 -6.3322975099940937e-01 -6.8933858961547856e-02  1.0035393954385244e-01 -9.3514706331574016e-01 -7.0929018251070064e-02  6.8303279800080485e-01 -6.1610094220558909e-01 -7.3262453977502029e-02  9.1917275651208596e-01 4.4798095059284108e-02 -1.8734553950510047e-01  9.4720558721397041e-01 1.3331362321074591e-01 -5.2976516048034672e-01  9.5317156542374659e-01 6.3356420709925421e-02 -1.1773077778919126e-01  1.0206904580608591e+00 5.7946945525735198e-02 -3.8667155099157030e-01  7.2200034592574447e-01 7.0951451761310336e-01 -1.8847404203004528e-01  6.3583541272819855e-01 7.0509378687817159e-01 -5.6773449994820357e-01  2.9237930830341305e-02 9.7533735871769911e-01 -1.9860367526200365e-01  9.5455039880906728e-02 9.5376537580487986e-01 -5.2653343179753298e-01  -6.4466158013633224e-01 7.4438432529560383e-01 -2.0297901653990599e-01  -7.2519940764210733e-01 6.3150940164204494e-01 -5.3361636891270536e-01  -1.0164765509109943e+00 -9.0939797198210354e-02 -1.8391931219060592e-01  -9.2264772738522438e-01 -6.9383191031083175e-02 -5.3346101226574860e-01  -7.5356201094336051e-01 -6.4249240049659073e-01 -1.8420476500922636e-01  -6.8301704415173614e-01 -6.4043788498846221e-01 -5.5858661119902520e-01  -3.7511973123547260e-02 -1.0284493137770090e+00 -1.9531423838442583e-01  -4.9654354839205404e-02 -9.2564383112353654e-01 -5.2773174692276059e-01  7.4116001289522249e-01 -7.1390706618632238e-01 -1.9661942580614139e-01  6.7993792069785952e-01 -7.6438000188694588e-01 -5.4188635371844773e-01  6.2618465208578455e-01 6.7144066139521896e-01 -1.2685837323552582e-01  5.6330811273405124e-01 6.8700102266307872e-01 -3.7619151409520951e-01  8.2084028051083405e-02 9.9903671387245963e-01 -1.1708688544520261e-01  4.5161736780092734e-02 9.6588404973127784e-01 -3.9217315186675117e-01  -7.6375671889004060e-01 6.8285866819893337e-01 -1.2786436725477157e-01  -6.9717438564451695e-01 7.2925409549083930e-01 -4.0334251138202970e-01  -9.2840600951764640e-01 -1.0234693300492032e-01 -1.2563652138806336e-01  -9.4204290639235555e-01 -1.8334624335341365e-01 -4.0002887137192700e-01  -7.4213775340130517e-01 -6.3082413851849950e-01 -1.3336188006583785e-01  -6.6144660282928969e-01 -5.2781746406545249e-01 -4.1696905345408164e-01  -1.4927325050176386e-02 -1.0370924047237386e+00 -1.0520029725736656e-01  -3.2599562688798746e-02 -9.9582574188114970e-01 -3.9852485353720091e-01  7.2979197185801425e-01 -6.7396066777614339e-01 -1.3272361721369560e-01  5.3901048799326312e-01 -7.3661205878053537e-01 -3.9568129505508992e-01  -1.0446813778450914e+00 -4.0299582436297993e-01 -2.9128783541065219e-02  -1.0141084234920767e+00 5.7737977726674827e-01 -4.6809123641417691e-02  -7.2800280376434301e-01 9.7669124743569447e-01 -6.1282012323182831e-02  4.1000224394766110e-01 1.0625843024998536e+00 -2.1125670357187733e-02  1.0914580378837029e+00 4.1120028696086031e-01 -2.2112781648363430e-02  1.0656639593317705e+00 -4.9035897988860438e-01 -2.4625100316699504e-02  6.5204550280457518e-01 -9.5079783611521562e-01 -6.4774640247866708e-02  -6.8590900094319718e-01 -9.4549324312189487e-01 -6.5254692387964941e-02  </DataArray> 
</PointData> 
</Piece>
</UnstructuredGrid>
</VTKFile>