<?xml version="1.0"?>
<VTKFile type="UnstructuredGrid"  version="0.1"  >
<UnstructuredGrid>
<Piece  NumberOfPoints="8" NumberOfCells="6">
<Points>
<DataArray  type="Float64"  NumberOfComponents="3"  format="ascii">0 0 0  1 0 0  0 1 0  1 1 0  0 0 1  1 0 1  0 1 1  1 1 1  </DataArray>
</Points>
<Cells>
<DataArray  type="UInt32"  Name="connectivity"  format="ascii">0 1 3 7  0 1 5 7  0 4 5 7  0 2 3 7  0 4 6 7  0 2 6 7  </DataArray>
<DataArray  type="UInt32"  Name="offsets"  format="ascii">4 8 12 16 20 24 </DataArray>
<DataArray  type="UInt8"  Name="types"  format="ascii">10 10 10 10 10 10 </DataArray>
</Cells>
<PointData  Vectors="f_62-0"> 
<DataArray  type="Float64"  Name="f_62-0"  NumberOfComponents="3" format="ascii">0.0000000000000000e+00 0.0000000000000000e+00 0.0000000000000000e+00  7.0000000000000007e-02 0.0000000000000000e+00 0.0000000000000000e+00  0.0000000000000000e+00 -3.3263510954336543e-02 0.0000000000000000e+00  7.0000000000000007e-02 -3.3263510954336370e-02 0.0000000000000000e+00  0.0000000000000000e+00 0.0000000000000000e+00 -3.3263510954336536e-02  7.0000000000000007e-02 0.0000000000000000e+00 -3.3263510954336301e-02  0.0000000000000000e+00 -3.3263510954336439e-02 -3.3263510954336474e-02  7.0000000000000007e-02 -3.3263510954336398e-02 -3.3263510954336446e-02  </DataArray> 
</PointData> 
</Piece>
</UnstructuredGrid>
</VTKFile>