<?xml version="1.0"?>
<VTKFile type="UnstructuredGrid"  version="0.1"  >
<UnstructuredGrid>
<Piece  NumberOfPoints="8" NumberOfCells="6">
<Points>
<DataArray  type="Float64"  NumberOfComponents="3"  format="ascii">0 0 0  1 0 0  0 1 0  1 1 0  0 0 1  1 0 1  0 1 1  1 1 1  </DataArray>
</Points>
<Cells>
<DataArray  type="UInt32"  Name="connectivity"  format="ascii">0 1 3 7  0 1 5 7  0 4 5 7  0 2 3 7  0 4 6 7  0 2 6 7  </DataArray>
<DataArray  type="UInt32"  Name="offsets"  format="ascii">4 8 12 16 20 24 </DataArray>
<DataArray  type="UInt8"  Name="types"  format="ascii">10 10 10 10 10 10 </DataArray>
</Cells>
<PointData  Vectors="f_62-0"> 
<DataArray  type="Float64"  Name="f_62-0"  NumberOfComponents="3" format="ascii">0.0000000000000000e+00 0.0000000000000000e+00 0.0000000000000000e+00  8.4000000000000005e-02 0.0000000000000000e+00 0.0000000000000000e+00  0.0000000000000000e+00 -3.9526525224405674e-02 0.0000000000000000e+00  8.4000000000000005e-02 -3.9526636103877986e-02 0.0000000000000000e+00  0.0000000000000000e+00 0.0000000000000000e+00 -3.9526479589124537e-02  8.4000000000000005e-02 0.0000000000000000e+00 -3.9526669154916066e-02  0.0000000000000000e+00 -3.9526546831739708e-02 -3.9526573939860296e-02  8.4000000000000005e-02 -3.9526611765757121e-02 -3.9526603103260644e-02  </DataArray> 
</PointData> 
</Piece>
</UnstructuredGrid>
</VTKFile>