<?xml version="1.0"?>
<VTKFile type="UnstructuredGrid"  version="0.1"  >
<UnstructuredGrid>
<Piece  NumberOfPoints="8" NumberOfCells="6">
<Points>
<DataArray  type="Float64"  NumberOfComponents="3"  format="ascii">0 0 0  1 0 0  0 1 0  1 1 0  0 0 1  1 0 1  0 1 1  1 1 1  </DataArray>
</Points>
<Cells>
<DataArray  type="UInt32"  Name="connectivity"  format="ascii">0 1 3 7  0 1 5 7  0 4 5 7  0 2 3 7  0 4 6 7  0 2 6 7  </DataArray>
<DataArray  type="UInt32"  Name="offsets"  format="ascii">4 8 12 16 20 24 </DataArray>
<DataArray  type="UInt8"  Name="types"  format="ascii">10 10 10 10 10 10 </DataArray>
</Cells>
<PointData  Vectors="f_62-0"> 
<DataArray  type="Float64"  Name="f_62-0"  NumberOfComponents="3" format="ascii">0.0000000000000000e+00 0.0000000000000000e+00 0.0000000000000000e+00  8.4000000000000005e-02 0.0000000000000000e+00 0.0000000000000000e+00  0.0000000000000000e+00 -3.9526557322480622e-02 0.0000000000000000e+00  8.4000000000000005e-02 -3.9526571345383635e-02 0.0000000000000000e+00  0.0000000000000000e+00 0.0000000000000000e+00 -3.9526551646931196e-02  8.4000000000000005e-02 0.0000000000000000e+00 -3.9526575439930003e-02  0.0000000000000000e+00 -3.9526560162475154e-02 -3.9526563528098253e-02  8.4000000000000005e-02 -3.9526568220223178e-02 -3.9526567163933372e-02  </DataArray> 
</PointData> 
</Piece>
</UnstructuredGrid>
</VTKFile>