<?xml version="1.0"?>
<VTKFile type="UnstructuredGrid"  version="0.1"  >
<UnstructuredGrid>
<Piece  NumberOfPoints="8" NumberOfCells="6">
<Points>
<DataArray  type="Float64"  NumberOfComponents="3"  format="ascii">0 0 0  1 0 0  0 1 0  1 1 0  0 0 1  1 0 1  0 1 1  1 1 1  </DataArray>
</Points>
<Cells>
<DataArray  type="UInt32"  Name="connectivity"  format="ascii">0 1 3 7  0 1 5 7  0 4 5 7  0 2 3 7  0 4 6 7  0 2 6 7  </DataArray>
<DataArray  type="UInt32"  Name="offsets"  format="ascii">4 8 12 16 20 24 </DataArray>
<DataArray  type="UInt8"  Name="types"  format="ascii">10 10 10 10 10 10 </DataArray>
</Cells>
<PointData  Vectors="f_62-0"> 
<DataArray  type="Float64"  Name="f_62-0"  NumberOfComponents="3" format="ascii">0.0000000000000000e+00 0.0000000000000000e+00 0.0000000000000000e+00  8.4000000000000005e-02 0.0000000000000000e+00 0.0000000000000000e+00  0.0000000000000000e+00 -3.9520572114558089e-02 0.0000000000000000e+00  8.4000000000000005e-02 -3.9533341891091013e-02 0.0000000000000000e+00  0.0000000000000000e+00 0.0000000000000000e+00 -3.9526408803498850e-02  8.4000000000000005e-02 0.0000000000000000e+00 -3.9528896760066171e-02  0.0000000000000000e+00 -3.9525425779168129e-02 -3.9522537271409343e-02  8.4000000000000005e-02 -3.9529164146773710e-02 -3.9529533645088898e-02  </DataArray> 
</PointData> 
</Piece>
</UnstructuredGrid>
</VTKFile>